18.05.2012
Study of Diffusion: Molstat exam project.

# Forces generation
python c:\Python26\Scripts\f2py.py -c --fcompiler=gnu95 --compiler=mingw32 -m forces forces.f

New Change
